ITEM: TIMESTEP
0
ITEM: NUMBER OF ATOMS
256
ITEM: BOX BOUNDS pp pp pp
-2.9915557370086887e-02 1.6229915557369939e+01
-2.9915557370086887e-02 1.6229915557369939e+01
-2.9915557370086887e-02 1.6229915557369939e+01
ITEM: ATOMS id type xs ys zs
2 1 0.118472 0.117798 0.00725976
3 1 0.118174 0.00442979 0.116571
8 1 0.253668 0.134545 0.123931
19 1 0.121489 0.258973 0.118857
21 1 0.240041 0.252213 0.00213663
65 1 0.00494256 0.00285065 0.240118
66 1 0.126879 0.132588 0.251575
85 1 0.24176 0.260931 0.249016
7 1 0.380043 0.0121918 0.132915
9 1 0.501413 0.0131048 0.00794427
10 1 0.612131 0.134435 0.000808214
11 1 0.616776 0.00587153 0.127952
12 1 0.500625 0.125992 0.131128
23 1 0.376815 0.24685 0.122446
25 1 0.496366 0.255986 0.0067646
27 1 0.620909 0.251497 0.135492
70 1 0.370353 0.134517 0.254978
74 1 0.629387 0.121156 0.261261
89 1 0.501071 0.250633 0.250508
4 1 0.996712 0.130717 0.122997
81 1 0.995153 0.254261 0.250791
15 1 0.878865 0.00256699 0.125009
16 1 0.736462 0.120049 0.131903
29 1 0.746588 0.250155 0.000566962
31 1 0.873873 0.244569 0.113197
77 1 0.759138 0.00244257 0.251048
78 1 0.892487 0.118198 0.248735
93 1 0.758277 0.256284 0.245832
24 1 0.249686 0.379204 0.116745
34 1 0.123093 0.63023 0.00237715
35 1 0.112197 0.498264 0.120676
40 1 0.248031 0.638318 0.123041
82 1 0.121083 0.376082 0.246287
97 1 0.00413098 0.498124 0.255497
98 1 0.130762 0.618724 0.235715
101 1 0.253943 0.502443 0.239567
26 1 0.620778 0.368364 0.00152237
28 1 0.509241 0.373966 0.125295
39 1 0.373414 0.502226 0.126904
41 1 0.494393 0.50012 0.00016061
42 1 0.633682 0.621289 0.0120175
43 1 0.617817 0.493605 0.132718
44 1 0.505606 0.622748 0.120169
86 1 0.3747 0.37703 0.249619
90 1 0.62577 0.379145 0.25694
102 1 0.381798 0.63341 0.249017
105 1 0.491476 0.503716 0.244939
106 1 0.634087 0.623864 0.24596
20 1 0.992904 0.36728 0.119267
36 1 0.996059 0.623711 0.124445
32 1 0.751323 0.378485 0.123131
47 1 0.88664 0.505986 0.130413
48 1 0.757956 0.614878 0.119811
94 1 0.870913 0.380198 0.243862
109 1 0.754269 0.498765 0.241098
110 1 0.874921 0.62609 0.251919
5 1 0.251909 0.992083 0.00800106
69 1 0.246609 0.995267 0.247192
50 1 0.119399 0.873659 0.00333012
51 1 0.131124 0.753634 0.125968
52 1 0.0083062 0.868345 0.123329
56 1 0.256875 0.873274 0.130801
113 1 0.00838555 0.744025 0.251506
114 1 0.134313 0.884081 0.254942
117 1 0.255655 0.750638 0.255709
73 1 0.500222 0.998532 0.259534
54 1 0.376979 0.873457 0.00613445
55 1 0.381676 0.752952 0.13571
57 1 0.501529 0.755339 0.00623037
59 1 0.631633 0.760975 0.126555
60 1 0.494552 0.888828 0.137763
118 1 0.36988 0.874721 0.255112
121 1 0.508889 0.761522 0.25307
122 1 0.641857 0.878449 0.248061
49 1 0.996056 0.74447 0.00175115
63 1 0.871931 0.762152 0.120032
64 1 0.75502 0.886043 0.113319
125 1 0.761178 0.752505 0.241667
126 1 0.88324 0.879767 0.252858
68 1 0.000128903 0.130916 0.374648
72 1 0.2499 0.128468 0.381299
83 1 0.126169 0.248175 0.37815
129 1 0.00108882 0.00707733 0.499227
130 1 0.131087 0.122462 0.506705
131 1 0.118592 0.000808446 0.628607
136 1 0.252468 0.119231 0.632125
145 1 0.00544272 0.252452 0.50004
147 1 0.114889 0.239587 0.633078
149 1 0.249713 0.250664 0.495109
75 1 0.628945 0.00104982 0.381231
76 1 0.507529 0.130343 0.379079
87 1 0.378123 0.255778 0.376731
91 1 0.62958 0.243189 0.380623
134 1 0.37003 0.120107 0.497327
137 1 0.507243 0.00500738 0.502446
138 1 0.62301 0.12692 0.505907
140 1 0.501293 0.121991 0.636015
151 1 0.370244 0.241428 0.614203
153 1 0.505386 0.258911 0.497418
155 1 0.623297 0.252235 0.629772
132 1 0.996862 0.123393 0.620936
79 1 0.8882 0.00553002 0.379051
80 1 0.750945 0.118523 0.380033
95 1 0.874114 0.2553 0.368297
141 1 0.755017 0.0056112 0.507174
142 1 0.874037 0.134885 0.506092
143 1 0.871205 0.00497918 0.616821
144 1 0.744097 0.124496 0.630567
157 1 0.745714 0.254917 0.500019
159 1 0.87253 0.247976 0.623655
84 1 0.00275735 0.372735 0.372094
88 1 0.242739 0.391209 0.367051
99 1 0.133163 0.504633 0.37859
100 1 0.00218826 0.628269 0.371465
104 1 0.24061 0.625266 0.372219
146 1 0.123516 0.376677 0.496561
148 1 3.36674e-05 0.365652 0.62879
152 1 0.252336 0.365721 0.62482
161 1 0.00725256 0.501124 0.506716
162 1 0.133011 0.63025 0.514338
163 1 0.132075 0.498436 0.635688
164 1 0.00189082 0.621179 0.616289
165 1 0.255559 0.502945 0.500427
168 1 0.256417 0.628839 0.641095
92 1 0.503741 0.375504 0.373246
103 1 0.364757 0.503831 0.374263
107 1 0.631496 0.501838 0.369945
108 1 0.501056 0.624373 0.367048
150 1 0.376569 0.376923 0.496415
154 1 0.620328 0.385535 0.497467
156 1 0.499347 0.380297 0.632264
166 1 0.374149 0.624919 0.501471
167 1 0.370979 0.495839 0.61967
169 1 0.492589 0.497267 0.492234
170 1 0.619368 0.61859 0.494141
171 1 0.623332 0.499068 0.621973
172 1 0.499747 0.621171 0.623856
96 1 0.751056 0.380175 0.374356
111 1 0.886478 0.502519 0.377944
112 1 0.753225 0.629957 0.372501
158 1 0.876856 0.370821 0.498574
160 1 0.745877 0.380821 0.617395
173 1 0.75547 0.503895 0.487458
174 1 0.875051 0.628047 0.495054
175 1 0.874266 0.493517 0.617279
176 1 0.751054 0.618236 0.627497
67 1 0.127872 0.99716 0.372607
133 1 0.246709 0.999409 0.506908
115 1 0.132969 0.74763 0.373133
116 1 0.00660102 0.875325 0.37345
120 1 0.249643 0.872119 0.376726
177 1 0.00303059 0.755137 0.489067
178 1 0.129575 0.875624 0.517587
179 1 0.11846 0.754782 0.629717
181 1 0.245231 0.754663 0.498928
184 1 0.250164 0.869783 0.64293
71 1 0.378424 0.995901 0.370878
135 1 0.370456 0.992199 0.623625
139 1 0.621158 0.989768 0.62254
119 1 0.3771 0.736662 0.380382
123 1 0.621099 0.7483 0.369476
124 1 0.490438 0.876588 0.384662
182 1 0.368656 0.872896 0.501316
183 1 0.37856 0.748981 0.638609
185 1 0.494672 0.743277 0.493256
186 1 0.627539 0.867905 0.494167
187 1 0.623747 0.741962 0.619544
188 1 0.498604 0.862883 0.610494
180 1 0.999845 0.881972 0.623829
127 1 0.879712 0.753709 0.363314
128 1 0.749637 0.876935 0.377608
189 1 0.752029 0.746846 0.485684
190 1 0.87851 0.877681 0.499873
191 1 0.874101 0.742261 0.617235
192 1 0.740622 0.865013 0.618264
17 1 0.000330503 0.250687 0.997955
193 1 0.00185031 0.00184766 0.752472
194 1 0.117971 0.122487 0.748207
196 1 0.00386309 0.128938 0.877328
200 1 0.248129 0.1094 0.892444
211 1 0.127682 0.244878 0.878662
213 1 0.248685 0.24446 0.757521
6 1 0.379049 0.126276 0.993088
198 1 0.36694 0.109272 0.748366
199 1 0.38398 0.00318454 0.880617
202 1 0.62451 0.122068 0.749297
204 1 0.504824 0.131293 0.869184
215 1 0.373298 0.244981 0.869699
217 1 0.491761 0.247419 0.745375
219 1 0.615101 0.252317 0.879754
13 1 0.744899 0.00678693 0.992198
14 1 0.865671 0.120546 0.997997
209 1 0.993945 0.25245 0.749197
206 1 0.881537 0.128681 0.758559
207 1 0.860599 0.00227637 0.870238
208 1 0.746027 0.124143 0.865538
221 1 0.749932 0.25735 0.752707
223 1 0.860613 0.248575 0.873055
18 1 0.119495 0.378907 0.993457
37 1 0.251614 0.494298 0.991169
210 1 0.121231 0.36962 0.747107
216 1 0.248667 0.371689 0.87096
226 1 0.122048 0.63348 0.746023
227 1 0.116796 0.496326 0.87292
229 1 0.246506 0.49421 0.747169
232 1 0.242643 0.624417 0.876011
22 1 0.372305 0.372861 0.998629
38 1 0.374519 0.635568 0.999015
214 1 0.365387 0.375666 0.747552
218 1 0.623389 0.373975 0.75455
220 1 0.496976 0.376922 0.878482
230 1 0.378161 0.613681 0.755557
231 1 0.372549 0.498856 0.873089
233 1 0.511007 0.503328 0.751221
234 1 0.629758 0.613474 0.759494
235 1 0.619406 0.490569 0.880937
236 1 0.502423 0.628493 0.884102
33 1 0.996348 0.505208 0.994783
30 1 0.872295 0.370996 0.996351
45 1 0.757064 0.49739 0.997232
46 1 0.865896 0.636877 0.987208
212 1 0.995959 0.368192 0.8749
225 1 0.996497 0.499429 0.749876
228 1 0.998529 0.627299 0.880164
222 1 0.871102 0.379816 0.746299
224 1 0.745543 0.372507 0.882525
237 1 0.747961 0.490109 0.742815
238 1 0.872376 0.613498 0.745117
239 1 0.869394 0.492821 0.875398
240 1 0.746189 0.623121 0.874218
53 1 0.261107 0.75347 0.993909
195 1 0.120713 0.988976 0.875268
197 1 0.246935 0.992137 0.758069
242 1 0.123007 0.872537 0.759923
243 1 0.126908 0.757299 0.876604
245 1 0.254654 0.738595 0.756874
248 1 0.260596 0.874461 0.879618
58 1 0.623976 0.87957 0.990065
201 1 0.498353 0.987128 0.733705
203 1 0.624406 0.994006 0.878062
246 1 0.381377 0.880597 0.761405
247 1 0.389489 0.744478 0.867009
249 1 0.508199 0.736346 0.746641
250 1 0.625713 0.868127 0.759524
251 1 0.631952 0.752709 0.879674
252 1 0.497067 0.875238 0.886958
1 1 0.995299 0.993773 0.994537
61 1 0.740102 0.75797 0.999978
62 1 0.87157 0.880749 0.999933
205 1 0.752817 0.996915 0.744676
241 1 0.999261 0.746619 0.749598
244 1 0.985374 0.874925 0.876019
253 1 0.756611 0.743269 0.73792
254 1 0.874596 0.876268 0.742609
255 1 0.875009 0.745873 0.868231
256 1 0.754538 0.865392 0.863585
ITEM: TIMESTEP
5000
ITEM: NUMBER OF ATOMS
256
ITEM: BOX BOUNDS pp pp pp
-4.3641133523858749e-01 1.6636411335238439e+01
1.1585401220001845e-01 1.6084145987799666e+01
1.1028628455256140e-01 1.6089713715447104e+01
ITEM: ATOMS id type xs ys zs
3 1 0.129508 0.00131569 0.12312
19 1 0.125484 0.251587 0.123502
66 1 0.130754 0.113778 0.241177
85 1 0.249233 0.252713 0.246353
4 1 -0.00250438 0.131101 0.123658
8 1 0.253626 0.127623 0.120233
23 1 0.378921 0.261359 0.129898
25 1 0.507646 0.248485 -0.000445161
70 1 0.374062 0.122193 0.235763
89 1 0.505638 0.253191 0.262705
69 1 0.247797 -0.00209002 0.235553
6 1 0.380991 0.132982 0.00831306
10 1 0.630868 0.118798 0.0014222
12 1 0.506555 0.142379 0.131236
27 1 0.625194 0.260387 0.127612
74 1 0.63203 0.131343 0.250328
29 1 0.742657 0.252073 0.00222429
13 1 0.753156 0.000427445 -0.00347987
81 1 1.00219 0.244763 0.246319
16 1 0.744861 0.126859 0.130061
31 1 0.877081 0.249265 0.124284
78 1 0.870951 0.129295 0.25139
93 1 0.750275 0.253502 0.25904
34 1 0.145383 0.630564 -0.00744062
35 1 0.119051 0.513779 0.119151
82 1 0.116747 0.381993 0.242122
98 1 0.125522 0.62576 0.26131
101 1 0.240974 0.498502 0.24729
20 1 -0.00705641 0.377244 0.125188
36 1 -0.0107445 0.625787 0.121226
37 1 0.252715 0.496713 0.00582021
24 1 0.25089 0.3824 0.133374
40 1 0.252991 0.62733 0.120701
28 1 0.505879 0.376635 0.11939
39 1 0.382465 0.499664 0.1258
86 1 0.37249 0.374342 0.247997
102 1 0.366264 0.614633 0.259938
41 1 0.496609 0.492879 -0.0052592
43 1 0.624907 0.503398 0.12625
44 1 0.495737 0.622218 0.126553
90 1 0.626888 0.385622 0.253063
105 1 0.492628 0.496714 0.254421
106 1 0.625296 0.620291 0.256411
32 1 0.734518 0.377966 0.115215
97 1 0.989169 0.510885 0.248876
47 1 0.868943 0.499626 0.129731
48 1 0.757537 0.634718 0.133143
94 1 0.870944 0.379441 0.238714
109 1 0.756904 0.498987 0.253775
110 1 0.871548 0.633181 0.254441
46 1 0.86922 0.62126 0.00538637
50 1 0.133594 0.875642 0.00322139
51 1 0.112836 0.741734 0.128186
56 1 0.248857 0.865481 0.121798
113 1 0.000373641 0.756747 0.239665
114 1 0.128601 0.868732 0.24833
7 1 0.378511 0.998264 0.119004
117 1 0.251623 0.7352 0.249811
73 1 0.500577 0.99892 0.239575
55 1 0.374096 0.745431 0.131934
118 1 0.376299 0.875545 0.249337
11 1 0.627022 1.00315 0.126935
59 1 0.629976 0.762405 0.12823
60 1 0.499202 0.8648 0.126923
121 1 0.499739 0.73764 0.259116
122 1 0.631156 0.867208 0.252315
58 1 0.631592 0.873087 0.00204133
65 1 0.995248 0.996204 0.250536
15 1 0.879432 1.01225 0.123139
77 1 0.747154 0.999787 0.252254
52 1 1.00603 0.883747 0.126937
49 1 0.993879 0.741751 0.00649494
63 1 0.878404 0.768789 0.127045
64 1 0.757957 0.882099 0.129065
125 1 0.75211 0.753366 0.252391
126 1 0.870264 0.881478 0.256542
61 1 0.761743 0.748064 -0.00106993
68 1 0.0109361 0.121411 0.370254
72 1 0.249404 0.121298 0.368669
83 1 0.135272 0.23827 0.36518
130 1 0.12385 0.127415 0.502151
131 1 0.125752 0.00404912 0.619638
145 1 0.0012088 0.254717 0.503756
147 1 0.127711 0.256189 0.622869
149 1 0.240426 0.23946 0.500856
67 1 0.128727 -0.00796674 0.369908
136 1 0.247282 0.112614 0.625553
87 1 0.362309 0.236937 0.36721
134 1 0.36866 0.125941 0.505259
151 1 0.376346 0.237694 0.637583
133 1 0.243556 -0.000350544 0.48836
71 1 0.370645 -0.00399525 0.362571
135 1 0.370721 0.0013153 0.626474
75 1 0.621528 -0.00277617 0.377985
76 1 0.490829 0.131973 0.378034
91 1 0.622626 0.243796 0.370618
138 1 0.618432 0.11751 0.502579
140 1 0.510569 0.131876 0.62445
153 1 0.505825 0.253159 0.497117
155 1 0.632489 0.25673 0.615145
141 1 0.74862 -0.00211636 0.499213
144 1 0.744379 0.120084 0.622395
132 1 0.997599 0.122104 0.621145
80 1 0.753785 0.114225 0.379006
95 1 0.878521 0.248306 0.365226
142 1 0.884533 0.125434 0.494223
143 1 0.866838 0.00808876 0.6306
157 1 0.768942 0.239903 0.49966
159 1 0.875949 0.258466 0.635158
88 1 0.247632 0.381673 0.372471
99 1 0.112969 0.502304 0.369159
146 1 0.126702 0.372928 0.491866
148 1 0.00383581 0.367941 0.634067
152 1 0.244145 0.388103 0.621799
161 1 -0.00299493 0.494218 0.496928
162 1 0.120823 0.622855 0.49995
163 1 0.118419 0.502859 0.629338
164 1 0.0106081 0.628015 0.621378
168 1 0.242438 0.630301 0.618014
104 1 0.246732 0.621954 0.382351
165 1 0.245276 0.497906 0.496718
103 1 0.368743 0.488992 0.387004
150 1 0.359552 0.349967 0.506647
156 1 0.492407 0.370518 0.619874
166 1 0.370051 0.639474 0.497729
167 1 0.373831 0.504739 0.615683
169 1 0.493602 0.496502 0.503351
172 1 0.491133 0.626034 0.622202
92 1 0.485757 0.370601 0.380117
107 1 0.62773 0.506246 0.381424
108 1 0.495819 0.615569 0.380931
154 1 0.619528 0.382524 0.493648
170 1 0.624132 0.625469 0.495468
171 1 0.617926 0.4964 0.630889
96 1 0.741683 0.37799 0.38271
112 1 0.757726 0.614552 0.373693
160 1 0.74492 0.374187 0.60669
173 1 0.743105 0.499818 0.507893
176 1 0.746001 0.621232 0.63724
84 1 0.9985 0.372044 0.3691
100 1 0.993287 0.627187 0.381257
111 1 0.869614 0.488723 0.36746
158 1 0.874632 0.373982 0.495189
174 1 0.877269 0.618153 0.50193
175 1 0.874703 0.508286 0.622174
129 1 -0.00164261 0.993838 0.496749
115 1 0.130337 0.754026 0.378832
120 1 0.258792 0.87247 0.36127
177 1 -0.00168539 0.743798 0.500519
178 1 0.126912 0.877643 0.497072
179 1 0.125722 0.756199 0.608883
137 1 0.491101 0.999418 0.496053
181 1 0.24744 0.759625 0.499632
184 1 0.253822 0.883221 0.620226
119 1 0.373848 0.752104 0.375849
182 1 0.369637 0.874446 0.503596
183 1 0.371185 0.747151 0.62795
185 1 0.50028 0.746124 0.496715
139 1 0.625574 1.00417 0.632337
123 1 0.626077 0.746159 0.378842
124 1 0.502448 0.872439 0.376324
186 1 0.628253 0.879091 0.497332
187 1 0.627294 0.757762 0.622841
188 1 0.500131 0.879583 0.626161
128 1 0.7457 0.874169 0.370203
189 1 0.752404 0.745686 0.499916
192 1 0.748846 0.869404 0.6375
79 1 0.877525 0.995023 0.376723
116 1 1.00048 0.859426 0.375013
180 1 1.00167 0.869872 0.625163
127 1 0.882022 0.750732 0.372328
190 1 0.869131 0.878843 0.500187
191 1 0.87076 0.743557 0.619944
2 1 0.129462 0.114192 1.00849
5 1 0.269244 0.000472429 0.996322
193 1 -0.002913 0.00424909 0.7456
194 1 0.119883 0.129105 0.760553
196 1 0.0055905 0.125032 0.877051
200 1 0.252523 0.132079 0.880537
211 1 0.136741 0.255233 0.877093
213 1 0.256261 0.238341 0.743316
209 1 0.0045841 0.257515 0.756961
195 1 0.141452 0.001372 0.883766
197 1 0.25188 0.00372075 0.757295
21 1 0.261733 0.253485 0.999448
198 1 0.382536 0.111805 0.751891
199 1 0.382516 -0.00381246 0.876777
215 1 0.381683 0.244106 0.866667
217 1 0.501791 0.251651 0.74752
202 1 0.62903 0.129 0.746336
204 1 0.506937 0.116691 0.876394
219 1 0.626783 0.251213 0.866744
221 1 0.753867 0.263229 0.748472
201 1 0.520296 -0.0029578 0.751251
203 1 0.631968 -0.00338801 0.87603
17 1 1.00158 0.244344 0.995819
14 1 0.87291 0.122472 1.00244
206 1 0.868022 0.124242 0.751295
208 1 0.748487 0.131838 0.87289
223 1 0.869331 0.254664 0.878859
18 1 0.129351 0.375875 1.00549
210 1 0.128381 0.367485 0.753564
216 1 0.253671 0.385896 0.880067
226 1 0.121486 0.627345 0.757622
227 1 0.130671 0.502394 0.870616
229 1 0.24554 0.504001 0.747024
228 1 -0.00935336 0.622102 0.883452
232 1 0.249614 0.639733 0.866079
22 1 0.378291 0.36973 0.995781
38 1 0.382603 0.625042 0.986631
214 1 0.370838 0.370225 0.742913
220 1 0.499155 0.374523 0.870348
230 1 0.37075 0.620254 0.745738
231 1 0.374694 0.501914 0.86766
233 1 0.49892 0.505582 0.751985
236 1 0.502254 0.624705 0.887239
26 1 0.629668 0.373395 0.987505
42 1 0.625559 0.626849 1.00742
218 1 0.612359 0.369042 0.74902
234 1 0.618885 0.630702 0.756426
235 1 0.6211 0.491722 0.869817
224 1 0.750349 0.37079 0.882029
237 1 0.740482 0.486279 0.751984
33 1 0.999475 0.50988 0.9991
30 1 0.873043 0.38369 1.00317
45 1 0.754489 0.502637 1
212 1 1.00756 0.380799 0.879111
225 1 0.996259 0.501089 0.748181
222 1 0.870983 0.377811 0.746947
238 1 0.872975 0.623188 0.748501
239 1 0.879675 0.498879 0.872731
240 1 0.741886 0.621502 0.875485
53 1 0.251376 0.754865 0.999414
242 1 0.123002 0.878391 0.752037
243 1 0.113367 0.750394 0.875129
245 1 0.241903 0.759671 0.755467
1 1 -0.00487787 1.00214 0.991061
241 1 0.00204827 0.753982 0.752916
244 1 0.00400683 0.87284 0.872332
54 1 0.377965 0.868497 1.00219
248 1 0.256524 0.879782 0.875064
246 1 0.375838 0.87738 0.748581
247 1 0.375888 0.746685 0.868343
9 1 0.501457 0.997832 1.00284
57 1 0.495858 0.741748 1.0114
249 1 0.497782 0.747299 0.749164
250 1 0.620235 0.863713 0.74941
251 1 0.63134 0.758227 0.886847
252 1 0.507856 0.872585 0.896476
253 1 0.743622 0.7457 0.752454
256 1 0.752885 0.882287 0.885979
207 1 0.876541 1.00405 0.875061
62 1 0.88004 0.878701 1.00504
205 1 0.74706 0.990819 0.745661
254 1 0.882079 0.881913 0.750772
255 1 0.876176 0.754179 0.860951
ITEM: TIMESTEP
10000
ITEM: NUMBER OF ATOMS
256
ITEM: BOX BOUNDS pp pp pp
-8.4290711310708810e-01 1.7042907113106942e+01
2.2363314518493826e-01 1.5976366854814913e+01
2.1127732061980709e-01 1.5988722679379849e+01
ITEM: ATOMS id type xs ys zs
19 1 0.124382 0.251801 0.124567
66 1 0.126241 0.128761 0.249081
4 1 0.00456735 0.131455 0.122209
81 1 -0.00762306 0.263088 0.245488
3 1 0.134062 0.00546186 0.121182
17 1 -0.00171674 0.244007 0.00421008
1 1 0.00804921 -0.00260698 0.00180115
8 1 0.247781 0.114052 0.129381
69 1 0.251943 -0.00509208 0.256385
85 1 0.239096 0.252108 0.252159
23 1 0.372941 0.243372 0.120133
70 1 0.378904 0.122032 0.24275
9 1 0.505276 -0.0154123 -0.000297693
89 1 0.498995 0.261156 0.241937
12 1 0.503559 0.112608 0.125926
27 1 0.617479 0.238383 0.118428
74 1 0.622513 0.11442 0.257993
16 1 0.752516 0.118852 0.122172
93 1 0.736969 0.240865 0.242894
31 1 0.876219 0.253572 0.122791
78 1 0.872953 0.129313 0.257032
29 1 0.747967 0.25471 0.0121716
14 1 0.87367 0.123225 -0.00932904
34 1 0.129959 0.640236 0.000943944
35 1 0.129776 0.500795 0.132774
82 1 0.120276 0.369214 0.248494
98 1 0.12193 0.623093 0.248132
101 1 0.2547 0.505869 0.250313
20 1 0.00676619 0.375387 0.119685
40 1 0.24658 0.636567 0.129336
18 1 0.116666 0.37808 0.00395814
37 1 0.254183 0.506578 0.00289715
24 1 0.253653 0.372262 0.122283
28 1 0.49817 0.382527 0.118867
39 1 0.377868 0.519927 0.11521
86 1 0.373225 0.369225 0.247774
102 1 0.365864 0.622834 0.257797
38 1 0.380207 0.633618 -0.0209206
44 1 0.513372 0.639609 0.121508
105 1 0.498392 0.495672 0.258074
43 1 0.618264 0.502333 0.115387
90 1 0.61983 0.371752 0.247311
106 1 0.626884 0.623041 0.251081
32 1 0.747388 0.376805 0.13679
26 1 0.625857 0.36966 0.00802794
36 1 1.00524 0.62054 0.126328
97 1 0.996301 0.491298 0.246913
48 1 0.751127 0.622834 0.125561
109 1 0.751137 0.50562 0.249211
47 1 0.864876 0.503005 0.114599
94 1 0.873467 0.373084 0.244817
110 1 0.878682 0.613913 0.263298
30 1 0.883907 0.367779 -0.000719564
50 1 0.131194 0.869374 -0.00406659
51 1 0.123315 0.749052 0.130056
114 1 0.115576 0.878699 0.250289
52 1 0.00246269 0.872944 0.128144
53 1 0.25571 0.75762 0.00050763
7 1 0.373104 0.992875 0.13351
56 1 0.247302 0.870085 0.121679
117 1 0.244034 0.748931 0.252619
55 1 0.38531 0.744537 0.11955
118 1 0.380201 0.866367 0.252845
60 1 0.510464 0.86974 0.124888
121 1 0.499906 0.750411 0.26714
11 1 0.627321 0.99497 0.127987
77 1 0.748292 1.00576 0.250829
73 1 0.501868 0.994381 0.237619
59 1 0.62905 0.757557 0.122187
122 1 0.621082 0.871032 0.251756
125 1 0.759249 0.742797 0.244406
64 1 0.753659 0.867606 0.129693
65 1 1.0039 0.997953 0.249565
15 1 0.881777 1.002 0.130721
113 1 0.993694 0.74468 0.250569
63 1 0.879523 0.748862 0.134407
126 1 0.868948 0.875877 0.265676
68 1 -0.000725976 0.129853 0.359747
83 1 0.1235 0.259763 0.378272
130 1 0.12599 0.127959 0.504709
145 1 -0.000722004 0.244547 0.489948
147 1 0.125275 0.25234 0.634038
133 1 0.26066 0.00041525 0.49638
132 1 0.00407322 0.125998 0.623608
72 1 0.245766 0.121326 0.378015
136 1 0.252961 0.132432 0.623059
129 1 -0.00794818 0.00140676 0.502011
131 1 0.128564 0.00579099 0.620812
149 1 0.244947 0.25812 0.501087
87 1 0.369565 0.245715 0.367027
134 1 0.376021 0.135053 0.4913
151 1 0.371903 0.243994 0.631997
76 1 0.497107 0.117513 0.364031
137 1 0.505234 0.0101693 0.500561
140 1 0.497265 0.129312 0.629629
153 1 0.493188 0.246785 0.501805
91 1 0.62126 0.245083 0.379776
138 1 0.614659 0.124484 0.495845
155 1 0.635284 0.253978 0.613807
141 1 0.749407 -0.00571847 0.501008
144 1 0.756514 0.128996 0.607931
157 1 0.747818 0.261981 0.497828
75 1 0.625027 -0.0109311 0.380981
80 1 0.746721 0.122786 0.387139
95 1 0.860766 0.262039 0.375306
142 1 0.88494 0.131328 0.49102
159 1 0.879111 0.243209 0.623447
79 1 0.879636 -0.00453433 0.379575
143 1 0.87337 -0.00629492 0.6239
99 1 0.133497 0.495748 0.367624
146 1 0.114847 0.37563 0.505829
162 1 0.127423 0.608448 0.492067
163 1 0.113252 0.491486 0.628364
168 1 0.241282 0.618493 0.623758
100 1 0.00693637 0.617198 0.367369
165 1 0.23744 0.483837 0.508674
148 1 -0.00227035 0.357561 0.622197
84 1 0.000202302 0.378334 0.379937
104 1 0.253799 0.616457 0.377215
88 1 0.250545 0.376206 0.361973
152 1 0.253158 0.379163 0.644488
103 1 0.376421 0.497148 0.380509
150 1 0.364749 0.376213 0.499871
166 1 0.365568 0.628933 0.506591
167 1 0.373972 0.502241 0.626417
169 1 0.494069 0.498394 0.511954
156 1 0.496901 0.361559 0.624662
92 1 0.496522 0.377042 0.383514
172 1 0.49999 0.631559 0.630373
108 1 0.500961 0.624447 0.38276
107 1 0.624086 0.49785 0.372733
154 1 0.624248 0.38414 0.498397
170 1 0.620564 0.614831 0.508199
171 1 0.622602 0.50261 0.634688
96 1 0.745769 0.378069 0.370319
112 1 0.753145 0.62558 0.378354
173 1 0.752848 0.487298 0.500494
176 1 0.751676 0.625949 0.612665
160 1 0.750816 0.369635 0.638186
161 1 1.00353 0.500567 0.505108
164 1 1.00765 0.618821 0.624804
111 1 0.871695 0.489952 0.374733
158 1 0.867798 0.366684 0.50147
174 1 0.870739 0.616436 0.500101
175 1 0.871819 0.502599 0.632128
67 1 0.12438 1.00679 0.363726
115 1 0.131376 0.756986 0.386666
178 1 0.126581 0.888175 0.490817
179 1 0.122941 0.749692 0.615626
184 1 0.251956 0.894757 0.634355
181 1 0.246628 0.753875 0.505139
116 1 0.00314522 0.872072 0.374416
71 1 0.376314 0.999112 0.371828
135 1 0.372172 1.01054 0.620042
120 1 0.24937 0.867422 0.378018
119 1 0.370596 0.755861 0.374748
182 1 0.381125 0.872539 0.508135
183 1 0.36599 0.752697 0.64189
124 1 0.503413 0.874928 0.381257
188 1 0.502935 0.87146 0.618866
185 1 0.4947 0.748206 0.494633
139 1 0.627312 1.00152 0.615986
123 1 0.624982 0.745684 0.377787
186 1 0.618306 0.869314 0.497157
187 1 0.63241 0.752234 0.626107
180 1 1.00389 0.876511 0.619134
189 1 0.740875 0.753955 0.49935
177 1 0.991788 0.736409 0.487962
128 1 0.743756 0.872935 0.36711
192 1 0.74965 0.872965 0.62688
127 1 0.877511 0.743888 0.372017
190 1 0.870072 0.864645 0.491874
191 1 0.882042 0.746896 0.615786
2 1 0.130198 0.124824 1.00094
194 1 0.129537 0.118781 0.756186
200 1 0.252992 0.124171 0.881087
211 1 0.126196 0.241437 0.868742
195 1 0.123102 0.00571395 0.879461
213 1 0.24144 0.240893 0.756327
25 1 0.495622 0.245006 0.998999
5 1 0.246623 -0.011069 0.98846
6 1 0.371508 0.11859 0.999497
21 1 0.242069 0.261011 0.993697
198 1 0.377198 0.128439 0.751659
215 1 0.371068 0.246481 0.874612
217 1 0.503123 0.25077 0.756987
199 1 0.372593 -0.00389536 0.870404
10 1 0.628895 0.119687 1.00342
202 1 0.614826 0.124328 0.737464
204 1 0.493587 0.124905 0.878265
219 1 0.624808 0.244585 0.879444
203 1 0.620851 0.0155155 0.867036
205 1 0.751388 0.0115927 0.737713
196 1 0.999167 0.132632 0.873947
209 1 0.99772 0.249328 0.754818
221 1 0.750112 0.228188 0.741669
206 1 0.868797 0.126175 0.754533
208 1 0.747798 0.129478 0.884136
223 1 0.873405 0.25794 0.870892
207 1 0.870749 0.000896946 0.877779
210 1 0.128158 0.374076 0.751906
226 1 0.116779 0.618338 0.757023
227 1 0.130862 0.50701 0.883668
229 1 0.245935 0.512992 0.75626
232 1 0.247266 0.632574 0.881491
212 1 0.00878606 0.375885 0.8872
228 1 0.00136178 0.617872 0.875892
225 1 -0.00580974 0.497236 0.746376
22 1 0.379632 0.377208 0.998499
216 1 0.25224 0.375182 0.868734
214 1 0.379315 0.376425 0.745754
230 1 0.391782 0.627436 0.755759
231 1 0.378176 0.498158 0.873898
41 1 0.494311 0.502442 1.00087
220 1 0.49974 0.383114 0.874895
233 1 0.499551 0.49663 0.75116
236 1 0.513355 0.629297 0.880196
42 1 0.64398 0.637267 0.997459
45 1 0.753515 0.496373 0.998507
218 1 0.634212 0.376783 0.754829
234 1 0.633641 0.63031 0.746149
235 1 0.625946 0.502502 0.872972
224 1 0.747577 0.355935 0.867893
33 1 0.999556 0.500575 1.01356
46 1 0.87886 0.62924 1.00417
237 1 0.75793 0.502828 0.751303
222 1 0.872303 0.373701 0.747474
238 1 0.877742 0.639076 0.754192
239 1 0.87086 0.490412 0.880267
240 1 0.751796 0.628578 0.868203
197 1 0.249257 1.00318 0.751062
242 1 0.123123 0.879442 0.754207
243 1 0.120516 0.753197 0.873203
193 1 0.00149448 1.00823 0.742426
54 1 0.374554 0.874618 0.996808
248 1 0.248811 0.86429 0.860808
245 1 0.237613 0.738017 0.749978
246 1 0.378841 0.892435 0.739261
247 1 0.376382 0.76265 0.863269
252 1 0.494783 0.878002 0.867513
58 1 0.634514 0.880669 0.998715
57 1 0.502403 0.760087 0.990118
201 1 0.503164 1.00221 0.754632
249 1 0.512628 0.757699 0.746435
250 1 0.623025 0.884311 0.753784
251 1 0.633158 0.757099 0.872792
61 1 0.753446 0.750878 0.994177
13 1 0.755677 0.999073 1.00561
49 1 0.996127 0.7448 0.998677
253 1 0.744431 0.763585 0.758551
256 1 0.749118 0.889561 0.869701
241 1 1.00739 0.758859 0.754557
244 1 1.00012 0.879061 0.87692
62 1 0.874236 0.874791 1.00942
254 1 0.878086 0.87369 0.750468
255 1 0.872534 0.756233 0.871366
ITEM: TIMESTEP
15000
ITEM: NUMBER OF ATOMS
256
ITEM: BOX BOUNDS pp pp pp
-1.2494028909755888e+00 1.7449402890975442e+01
3.1626438661575396e-01 1.5883735613384058e+01
3.3436483379383919e-01 1.5865635166205788e+01
ITEM: ATOMS id type xs ys zs
19 1 0.124189 0.246658 0.116623
66 1 0.118632 0.134181 0.238923
85 1 0.24598 0.243852 0.246866
81 1 0.0016793 0.259767 0.245124
3 1 0.130419 0.00111167 0.118485
21 1 0.246039 0.265379 -0.00572937
8 1 0.241655 0.133936 0.107096
23 1 0.378648 0.257213 0.117672
70 1 0.371024 0.136541 0.242711
89 1 0.505623 0.255211 0.239098
12 1 0.494006 0.125153 0.128845
69 1 0.239755 0.00892584 0.250865
27 1 0.63898 0.258417 0.130508
74 1 0.621231 0.120702 0.24006
10 1 0.62813 0.13371 -0.000717352
93 1 0.758308 0.238136 0.239234
13 1 0.751754 -0.00238067 -0.00797662
4 1 0.991928 0.131075 0.114487
16 1 0.747356 0.117568 0.114884
31 1 0.873389 0.250402 0.114274
78 1 0.874511 0.118194 0.243702
15 1 0.879061 -0.00506853 0.12139
29 1 0.748824 0.242642 -0.00695103
17 1 1.0005 0.249696 -0.0136029
14 1 0.876425 0.111221 -0.00904142
35 1 0.115925 0.500892 0.122757
82 1 0.12797 0.371874 0.247287
98 1 0.124266 0.612159 0.256158
36 1 -0.0103126 0.630365 0.133219
101 1 0.252291 0.494589 0.245689
37 1 0.249558 0.499326 -0.00134056
18 1 0.115488 0.375286 -0.00406229
40 1 0.245625 0.619528 0.132361
24 1 0.249611 0.369119 0.129731
39 1 0.366725 0.502306 0.124825
86 1 0.38029 0.373413 0.253672
102 1 0.375171 0.636338 0.242715
22 1 0.375142 0.378777 -0.00412811
44 1 0.494197 0.626193 0.133594
28 1 0.499421 0.381257 0.125325
105 1 0.49797 0.501565 0.254535
43 1 0.626065 0.501907 0.11843
90 1 0.638343 0.386921 0.258814
106 1 0.626923 0.615651 0.2601
45 1 0.748235 0.49633 -0.00327292
32 1 0.742634 0.382737 0.123018
109 1 0.751339 0.498426 0.252477
42 1 0.627065 0.63332 0.00404102
97 1 1.00377 0.497481 0.25304
20 1 0.997434 0.36982 0.121489
48 1 0.743433 0.60999 0.122981
47 1 0.876716 0.491655 0.124142
94 1 0.87887 0.380352 0.249515
110 1 0.877037 0.615084 0.251332
30 1 0.876934 0.380553 -0.0019504
51 1 0.130997 0.754681 0.133714
114 1 0.130485 0.874152 0.251118
50 1 0.122821 0.870511 -0.00368008
56 1 0.246713 0.874038 0.136944
117 1 0.256713 0.750909 0.271415
113 1 -0.000211315 0.749375 0.253806
7 1 0.370389 1.00373 0.13177
55 1 0.3714 0.7642 0.120116
118 1 0.373831 0.874132 0.2662
121 1 0.501376 0.747736 0.259785
53 1 0.24329 0.759249 0.00590966
57 1 0.502508 0.747635 0.0106489
9 1 0.491119 1.00662 0.0048116
60 1 0.48311 0.87113 0.13307
11 1 0.616375 0.990683 0.109286
73 1 0.499417 1.01301 0.260424
59 1 0.62113 0.7538 0.147984
122 1 0.613587 0.884092 0.256239
125 1 0.752024 0.73213 0.246327
77 1 0.746816 0.995899 0.23627
65 1 1.0023 1.01202 0.2473
52 1 1.00604 0.866347 0.128515
64 1 0.747816 0.872885 0.125137
63 1 0.877922 0.748985 0.128927
126 1 0.86703 0.868181 0.237311
1 1 0.994022 0.990847 0.0106249
83 1 0.123065 0.260045 0.379692
130 1 0.127252 0.133552 0.483027
147 1 0.131364 0.253011 0.620466
136 1 0.248959 0.125975 0.614626
145 1 -0.00105047 0.251062 0.50087
132 1 0.0157815 0.120926 0.627669
131 1 0.132551 0.00287598 0.614637
133 1 0.250808 0.00122358 0.504108
149 1 0.25623 0.259728 0.506647
72 1 0.262109 0.134929 0.379368
87 1 0.367416 0.258176 0.384977
134 1 0.376032 0.137545 0.502237
151 1 0.378287 0.26269 0.623469
137 1 0.504628 0.00577771 0.50423
140 1 0.503913 0.141149 0.626338
76 1 0.500553 0.144473 0.381888
135 1 0.372428 0.00575494 0.620902
153 1 0.483152 0.264909 0.498623
91 1 0.63838 0.240805 0.363448
138 1 0.633138 0.117553 0.515431
155 1 0.62444 0.242015 0.63671
75 1 0.610061 0.00691261 0.378283
144 1 0.754272 0.123881 0.63124
141 1 0.749651 0.00715402 0.50541
68 1 0.99999 0.131949 0.369779
157 1 0.754613 0.237746 0.49476
80 1 0.759385 0.124406 0.35856
95 1 0.877162 0.25294 0.362283
142 1 0.878499 0.119958 0.484819
159 1 0.876696 0.233178 0.622842
99 1 0.127283 0.494726 0.380421
146 1 0.123602 0.375982 0.508435
162 1 0.133829 0.626193 0.488538
163 1 0.120186 0.493713 0.627881
104 1 0.249227 0.613108 0.369584
164 1 0.00375965 0.625816 0.627539
152 1 0.247734 0.384736 0.634984
148 1 -0.00107214 0.371471 0.61975
165 1 0.244185 0.491673 0.499848
84 1 -0.00315273 0.378975 0.372698
161 1 0.00587143 0.505149 0.498423
100 1 0.00357196 0.619729 0.375161